
Host: DESKTOP-LQUE52H

Timers On : Mon Jul 22 11:28:20 2024
Timers Off: Mon Jul 22 11:28:47 2024

Wall Time:       27.11 seconds

                                                       Time (seconds)
Module                                       User      System        Wall        Calls

--------------------------------------------------------------------------------------

**************************************************************************************
